Title: KiCad schematic
Date: Sun Feb 27 21:02:46  2022
Plotname: Transient Analysis
Flags: real
No. Variables: 7
No. Points: 802
Variables:
	0	time	time
	1	i(@r1[i])	current
	2	i(@v1[i])	current
	3	i(@v2[i])	current
	4	v(in1)	voltage
	5	v(in2)	voltage
	6	v(net-_r1-pad1_)	voltage
Values:
 0	0.000000000000000e+00
	5.050000000000001e+01
	0.000000000000000e+00
	0.000000000000000e+00
	0.000000000000000e+00
	0.000000000000000e+00
	5.050000000000001e+00

 1	2.000000000000002e-11
	5.050000000000001e+01
	0.000000000000000e+00
	0.000000000000000e+00
	0.000000000000000e+00
	0.000000000000000e+00
	5.050000000000001e+00

 2	4.000000000000004e-11
	5.050000000000001e+01
	0.000000000000000e+00
	0.000000000000000e+00
	0.000000000000000e+00
	0.000000000000000e+00
	5.050000000000001e+00

 3	8.000000000000007e-11
	5.050000000000001e+01
	0.000000000000000e+00
	0.000000000000000e+00
	0.000000000000000e+00
	0.000000000000000e+00
	5.050000000000001e+00

 4	1.600000000000001e-10
	5.050000000000001e+01
	0.000000000000000e+00
	0.000000000000000e+00
	0.000000000000000e+00
	0.000000000000000e+00
	5.050000000000001e+00

 5	3.200000000000003e-10
	5.050000000000001e+01
	0.000000000000000e+00
	0.000000000000000e+00
	0.000000000000000e+00
	0.000000000000000e+00
	5.050000000000001e+00

 6	6.400000000000006e-10
	5.050000000000001e+01
	0.000000000000000e+00
	0.000000000000000e+00
	0.000000000000000e+00
	0.000000000000000e+00
	5.050000000000001e+00

 7	1.280000000000001e-09
	5.050000000000001e+01
	0.000000000000000e+00
	0.000000000000000e+00
	0.000000000000000e+00
	0.000000000000000e+00
	5.050000000000001e+00

 8	2.000000000000002e-09
	5.050000000000001e+01
	0.000000000000000e+00
	0.000000000000000e+00
	0.000000000000000e+00
	0.000000000000000e+00
	5.050000000000001e+00

 9	2.128000000000002e-09
	2.104999999999998e+02
	0.000000000000000e+00
	0.000000000000000e+00
	3.199999999999996e-01
	0.000000000000000e+00
	2.104999999999998e+01

 10	2.384000000000002e-09
	5.305000000000000e+02
	0.000000000000000e+00
	0.000000000000000e+00
	9.600000000000000e-01
	0.000000000000000e+00
	5.305000000000000e+01

 11	2.896000000000002e-09
	1.170500000000000e+03
	0.000000000000000e+00
	0.000000000000000e+00
	2.239999999999999e+00
	0.000000000000000e+00
	1.170500000000000e+02

 12	3.920000000000003e-09
	2.450499999999999e+03
	0.000000000000000e+00
	0.000000000000000e+00
	4.799999999999999e+00
	0.000000000000000e+00
	2.450499999999999e+02

 13	4.000000000000004e-09
	2.550500000000000e+03
	0.000000000000000e+00
	0.000000000000000e+00
	5.000000000000000e+00
	0.000000000000000e+00
	2.550500000000000e+02

 14	4.160000000000005e-09
	2.550500000000000e+03
	0.000000000000000e+00
	0.000000000000000e+00
	5.000000000000000e+00
	0.000000000000000e+00
	2.550500000000000e+02

 15	4.480000000000007e-09
	2.550500000000000e+03
	0.000000000000000e+00
	0.000000000000000e+00
	5.000000000000000e+00
	0.000000000000000e+00
	2.550500000000000e+02

 16	5.120000000000011e-09
	2.550500000000000e+03
	0.000000000000000e+00
	0.000000000000000e+00
	5.000000000000000e+00
	0.000000000000000e+00
	2.550500000000000e+02

 17	6.400000000000020e-09
	2.550500000000000e+03
	0.000000000000000e+00
	0.000000000000000e+00
	5.000000000000000e+00
	0.000000000000000e+00
	2.550500000000000e+02

 18	8.960000000000039e-09
	2.550500000000000e+03
	0.000000000000000e+00
	0.000000000000000e+00
	5.000000000000000e+00
	0.000000000000000e+00
	2.550500000000000e+02

 19	1.408000000000007e-08
	2.550500000000000e+03
	0.000000000000000e+00
	0.000000000000000e+00
	5.000000000000000e+00
	0.000000000000000e+00
	2.550500000000000e+02

 20	2.432000000000014e-08
	2.550500000000000e+03
	0.000000000000000e+00
	0.000000000000000e+00
	5.000000000000000e+00
	0.000000000000000e+00
	2.550500000000000e+02

 21	4.480000000000028e-08
	2.550500000000000e+03
	0.000000000000000e+00
	0.000000000000000e+00
	5.000000000000000e+00
	0.000000000000000e+00
	2.550500000000000e+02

 22	8.576000000000056e-08
	2.550500000000000e+03
	0.000000000000000e+00
	0.000000000000000e+00
	5.000000000000000e+00
	0.000000000000000e+00
	2.550500000000000e+02

 23	1.676800000000011e-07
	2.550500000000000e+03
	0.000000000000000e+00
	0.000000000000000e+00
	5.000000000000000e+00
	0.000000000000000e+00
	2.550500000000000e+02

 24	3.315200000000023e-07
	2.550500000000000e+03
	0.000000000000000e+00
	0.000000000000000e+00
	5.000000000000000e+00
	0.000000000000000e+00
	2.550500000000000e+02

 25	6.592000000000045e-07
	2.550500000000000e+03
	0.000000000000000e+00
	0.000000000000000e+00
	5.000000000000000e+00
	0.000000000000000e+00
	2.550500000000000e+02

 26	1.314560000000009e-06
	2.550500000000000e+03
	0.000000000000000e+00
	0.000000000000000e+00
	5.000000000000000e+00
	0.000000000000000e+00
	2.550500000000000e+02

 27	2.314560000000010e-06
	2.550500000000000e+03
	0.000000000000000e+00
	0.000000000000000e+00
	5.000000000000000e+00
	0.000000000000000e+00
	2.550500000000000e+02

 28	3.314560000000010e-06
	2.550500000000000e+03
	0.000000000000000e+00
	0.000000000000000e+00
	5.000000000000000e+00
	0.000000000000000e+00
	2.550500000000000e+02

 29	4.314560000000011e-06
	2.550500000000000e+03
	0.000000000000000e+00
	0.000000000000000e+00
	5.000000000000000e+00
	0.000000000000000e+00
	2.550500000000000e+02

 30	5.314560000000012e-06
	2.550500000000000e+03
	0.000000000000000e+00
	0.000000000000000e+00
	5.000000000000000e+00
	0.000000000000000e+00
	2.550500000000000e+02

 31	6.314560000000012e-06
	2.550500000000000e+03
	0.000000000000000e+00
	0.000000000000000e+00
	5.000000000000000e+00
	0.000000000000000e+00
	2.550500000000000e+02

 32	7.314560000000013e-06
	2.550500000000000e+03
	0.000000000000000e+00
	0.000000000000000e+00
	5.000000000000000e+00
	0.000000000000000e+00
	2.550500000000000e+02

 33	8.314560000000014e-06
	2.550500000000000e+03
	0.000000000000000e+00
	0.000000000000000e+00
	5.000000000000000e+00
	0.000000000000000e+00
	2.550500000000000e+02

 34	9.314560000000015e-06
	2.550500000000000e+03
	0.000000000000000e+00
	0.000000000000000e+00
	5.000000000000000e+00
	0.000000000000000e+00
	2.550500000000000e+02

 35	1.031456000000002e-05
	2.550500000000000e+03
	0.000000000000000e+00
	0.000000000000000e+00
	5.000000000000000e+00
	0.000000000000000e+00
	2.550500000000000e+02

 36	1.131456000000002e-05
	2.550500000000000e+03
	0.000000000000000e+00
	0.000000000000000e+00
	5.000000000000000e+00
	0.000000000000000e+00
	2.550500000000000e+02

 37	1.231456000000002e-05
	2.550500000000000e+03
	0.000000000000000e+00
	0.000000000000000e+00
	5.000000000000000e+00
	0.000000000000000e+00
	2.550500000000000e+02

 38	1.331456000000002e-05
	2.550500000000000e+03
	0.000000000000000e+00
	0.000000000000000e+00
	5.000000000000000e+00
	0.000000000000000e+00
	2.550500000000000e+02

 39	1.431456000000002e-05
	2.550500000000000e+03
	0.000000000000000e+00
	0.000000000000000e+00
	5.000000000000000e+00
	0.000000000000000e+00
	2.550500000000000e+02

 40	1.531456000000002e-05
	2.550500000000000e+03
	0.000000000000000e+00
	0.000000000000000e+00
	5.000000000000000e+00
	0.000000000000000e+00
	2.550500000000000e+02

 41	1.631456000000002e-05
	2.550500000000000e+03
	0.000000000000000e+00
	0.000000000000000e+00
	5.000000000000000e+00
	0.000000000000000e+00
	2.550500000000000e+02

 42	1.731456000000002e-05
	2.550500000000000e+03
	0.000000000000000e+00
	0.000000000000000e+00
	5.000000000000000e+00
	0.000000000000000e+00
	2.550500000000000e+02

 43	1.831456000000002e-05
	2.550500000000000e+03
	0.000000000000000e+00
	0.000000000000000e+00
	5.000000000000000e+00
	0.000000000000000e+00
	2.550500000000000e+02

 44	1.931456000000002e-05
	2.550500000000000e+03
	0.000000000000000e+00
	0.000000000000000e+00
	5.000000000000000e+00
	0.000000000000000e+00
	2.550500000000000e+02

 45	2.031456000000002e-05
	2.550500000000000e+03
	0.000000000000000e+00
	0.000000000000000e+00
	5.000000000000000e+00
	0.000000000000000e+00
	2.550500000000000e+02

 46	2.131456000000002e-05
	2.550500000000000e+03
	0.000000000000000e+00
	0.000000000000000e+00
	5.000000000000000e+00
	0.000000000000000e+00
	2.550500000000000e+02

 47	2.231456000000002e-05
	2.550500000000000e+03
	0.000000000000000e+00
	0.000000000000000e+00
	5.000000000000000e+00
	0.000000000000000e+00
	2.550500000000000e+02

 48	2.331456000000002e-05
	2.550500000000000e+03
	0.000000000000000e+00
	0.000000000000000e+00
	5.000000000000000e+00
	0.000000000000000e+00
	2.550500000000000e+02

 49	2.431456000000002e-05
	2.550500000000000e+03
	0.000000000000000e+00
	0.000000000000000e+00
	5.000000000000000e+00
	0.000000000000000e+00
	2.550500000000000e+02

 50	2.531456000000002e-05
	2.550500000000000e+03
	0.000000000000000e+00
	0.000000000000000e+00
	5.000000000000000e+00
	0.000000000000000e+00
	2.550500000000000e+02

 51	2.631456000000002e-05
	2.550500000000000e+03
	0.000000000000000e+00
	0.000000000000000e+00
	5.000000000000000e+00
	0.000000000000000e+00
	2.550500000000000e+02

 52	2.731456000000003e-05
	2.550500000000000e+03
	0.000000000000000e+00
	0.000000000000000e+00
	5.000000000000000e+00
	0.000000000000000e+00
	2.550500000000000e+02

 53	2.831456000000003e-05
	2.550500000000000e+03
	0.000000000000000e+00
	0.000000000000000e+00
	5.000000000000000e+00
	0.000000000000000e+00
	2.550500000000000e+02

 54	2.931456000000003e-05
	2.550500000000000e+03
	0.000000000000000e+00
	0.000000000000000e+00
	5.000000000000000e+00
	0.000000000000000e+00
	2.550500000000000e+02

 55	3.031456000000003e-05
	3.054459074571075e+03
	0.000000000000000e+00
	0.000000000000000e+00
	5.000000000000000e+00
	1.976310096357155e-02
	3.054459074571075e+02

 56	3.131456000000003e-05
	4.654310153592682e+03
	0.000000000000000e+00
	0.000000000000000e+00
	5.000000000000000e+00
	8.250235896441892e-02
	4.654310153592682e+02

 57	3.231456000000003e-05
	6.245858455077482e+03
	0.000000000000000e+00
	0.000000000000000e+00
	5.000000000000000e+00
	1.449160178461758e-01
	6.245858455077482e+02

 58	3.331456000000003e-05
	7.822822864988783e+03
	0.000000000000000e+00
	0.000000000000000e+00
	5.000000000000000e+00
	2.067577594113248e-01
	7.822822864988783e+02

 59	3.431456000000002e-05
	9.378979825247166e+03
	0.000000000000000e+00
	0.000000000000000e+00
	5.000000000000000e+00
	2.677835225587125e-01
	9.378979825247167e+02

 60	3.531456000000002e-05
	1.090818789527099e+04
	0.000000000000000e+00
	0.000000000000000e+00
	5.000000000000000e+00
	3.277524664812154e-01
	1.090818789527099e+03

 61	3.631456000000002e-05
	1.240441198943658e+04
	0.000000000000000e+00
	0.000000000000000e+00
	5.000000000000000e+00
	3.864279211543759e-01
	1.240441198943658e+03

 62	3.731456000000001e-05
	1.386174719480403e+04
	0.000000000000000e+00
	0.000000000000000e+00
	5.000000000000000e+00
	4.435783213648641e-01
	1.386174719480403e+03

 63	3.831456000000001e-05
	1.527444207511089e+04
	0.000000000000000e+00
	0.000000000000000e+00
	5.000000000000000e+00
	4.989781205925839e-01
	1.527444207511089e+03

 64	3.931456000000001e-05
	1.663692136906347e+04
	0.000000000000000e+00
	0.000000000000000e+00
	5.000000000000000e+00
	5.524086811397440e-01
	1.663692136906347e+03

 65	4.031456000000001e-05
	1.794380799334612e+04
	0.000000000000000e+00
	0.000000000000000e+00
	5.000000000000000e+00
	6.036591369939658e-01
	1.794380799334612e+03

 66	4.131456000000000e-05
	1.918994426351253e+04
	0.000000000000000e+00
	0.000000000000000e+00
	5.000000000000000e+00
	6.525272260200993e-01
	1.918994426351253e+03

 67	4.231456000000000e-05
	2.037041224900983e+04
	0.000000000000000e+00
	0.000000000000000e+00
	5.000000000000000e+00
	6.988200881964640e-01
	2.037041224900983e+03

 68	4.331456000000000e-05
	2.148055318200380e+04
	0.000000000000000e+00
	0.000000000000000e+00
	5.000000000000000e+00
	7.423550267452472e-01
	2.148055318200380e+03

 69	4.431455999999999e-05
	2.251598584340706e+04
	0.000000000000000e+00
	0.000000000000000e+00
	5.000000000000000e+00
	7.829602291532181e-01
	2.251598584340706e+03

 70	4.531455999999999e-05
	2.347262385354924e+04
	0.000000000000000e+00
	0.000000000000000e+00
	5.000000000000000e+00
	8.204754452372250e-01
	2.347262385354924e+03

 71	4.631455999999999e-05
	2.434669179925064e+04
	0.000000000000000e+00
	0.000000000000000e+00
	5.000000000000000e+00
	8.547526195784562e-01
	2.434669179925063e+03

 72	4.731455999999999e-05
	2.513474013365323e+04
	0.000000000000000e+00
	0.000000000000000e+00
	5.000000000000000e+00
	8.856564758295383e-01
	2.513474013365323e+03

 73	4.831455999999998e-05
	2.583365879000616e+04
	0.000000000000000e+00
	0.000000000000000e+00
	5.000000000000000e+00
	9.130650505884772e-01
	2.583365879000616e+03

 74	4.931455999999998e-05
	2.644068945567840e+04
	0.000000000000000e+00
	0.000000000000000e+00
	5.000000000000000e+00
	9.368701747324860e-01
	2.644068945567840e+03

 75	5.000400000000003e-05
	2.680442084273465e+04
	0.000000000000000e+00
	0.000000000000000e+00
	4.999999999983060e+00
	9.511341506989203e-01
	2.680442084273465e+03

 76	5.000420000000003e-05
	2.417668440963094e+04
	0.000000000000000e+00
	0.000000000000000e+00
	4.499999999981964e+00
	9.511380308420800e-01
	2.417668440963094e+03

 77	5.000460000000003e-05
	1.892116303127281e+04
	0.000000000000000e+00
	0.000000000000000e+00
	3.499999999979772e+00
	9.511457906778057e-01
	1.892116303127281e+03

 78	5.000540000000003e-05
	8.409790468245566e+03
	0.000000000000000e+00
	0.000000000000000e+00
	1.499999999975388e+00
	9.511613085468651e-01
	8.409790468245567e+02

 79	5.000600000000003e-05
	5.260864726857735e+02
	0.000000000000000e+00
	0.000000000000000e+00
	0.000000000000000e+00
	9.511729453715473e-01
	5.260864726857736e+01

 80	5.000616000000003e-05
	5.260880241482438e+02
	0.000000000000000e+00
	0.000000000000000e+00
	0.000000000000000e+00
	9.511760482964876e-01
	5.260880241482437e+01

 81	5.000648000000003e-05
	5.260911269289885e+02
	0.000000000000000e+00
	0.000000000000000e+00
	0.000000000000000e+00
	9.511822538579771e-01
	5.260911269289885e+01

 82	5.000712000000003e-05
	5.260973319136907e+02
	0.000000000000000e+00
	0.000000000000000e+00
	0.000000000000000e+00
	9.511946638273813e-01
	5.260973319136907e+01

 83	5.000840000000003e-05
	5.261097395759109e+02
	0.000000000000000e+00
	0.000000000000000e+00
	0.000000000000000e+00
	9.512194791518219e-01
	5.261097395759109e+01

 84	5.001096000000002e-05
	5.261345456713345e+02
	0.000000000000000e+00
	0.000000000000000e+00
	0.000000000000000e+00
	9.512690913426690e-01
	5.261345456713345e+01

 85	5.001608000000002e-05
	5.261841209438677e+02
	0.000000000000000e+00
	0.000000000000000e+00
	0.000000000000000e+00
	9.513682418877354e-01
	5.261841209438677e+01

 86	5.002632000000000e-05
	5.262831237977284e+02
	0.000000000000000e+00
	0.000000000000000e+00
	0.000000000000000e+00
	9.515662475954569e-01
	5.262831237977284e+01

 87	5.004679999999998e-05
	5.264805385972927e+02
	0.000000000000000e+00
	0.000000000000000e+00
	0.000000000000000e+00
	9.519610771945852e-01
	5.264805385972927e+01

 88	5.008775999999993e-05
	5.268730034213952e+02
	0.000000000000000e+00
	0.000000000000000e+00
	0.000000000000000e+00
	9.527460068427904e-01
	5.268730034213952e+01

 89	5.016967999999983e-05
	5.276484648988758e+02
	0.000000000000000e+00
	0.000000000000000e+00
	0.000000000000000e+00
	9.542969297977513e-01
	5.276484648988757e+01

 90	5.033351999999964e-05
	5.291614437040917e+02
	0.000000000000000e+00
	0.000000000000000e+00
	0.000000000000000e+00
	9.573228874081834e-01
	5.291614437040917e+01

 91	5.066119999999924e-05
	5.320350705943489e+02
	0.000000000000000e+00
	0.000000000000000e+00
	0.000000000000000e+00
	9.630701411886976e-01
	5.320350705943489e+01

 92	5.131655999999846e-05
	5.371688516721691e+02
	0.000000000000000e+00
	0.000000000000000e+00
	0.000000000000000e+00
	9.733377033443383e-01
	5.371688516721692e+01

 93	5.231655999999846e-05
	5.434098660049806e+02
	0.000000000000000e+00
	0.000000000000000e+00
	0.000000000000000e+00
	9.858197320099612e-01
	5.434098660049806e+01

 94	5.331655999999846e-05
	5.477055902857678e+02
	0.000000000000000e+00
	0.000000000000000e+00
	0.000000000000000e+00
	9.944111805715357e-01
	5.477055902857678e+01

 95	5.431655999999845e-05
	5.500390712533243e+02
	0.000000000000000e+00
	0.000000000000000e+00
	0.000000000000000e+00
	9.990781425066486e-01
	5.500390712533243e+01

 96	5.531655999999845e-05
	5.504010997243372e+02
	0.000000000000000e+00
	0.000000000000000e+00
	0.000000000000000e+00
	9.998021994486744e-01
	5.504010997243373e+01

 97	5.631655999999845e-05
	5.487902469378265e+02
	0.000000000000000e+00
	0.000000000000000e+00
	0.000000000000000e+00
	9.965804938756530e-01
	5.487902469378265e+01

 98	5.731655999999844e-05
	5.452128701938117e+02
	0.000000000000000e+00
	0.000000000000000e+00
	0.000000000000000e+00
	9.894257403876237e-01
	5.452128701938117e+01

 99	5.831655999999844e-05
	5.396830877639541e+02
	0.000000000000000e+00
	0.000000000000000e+00
	0.000000000000000e+00
	9.783661755279078e-01
	5.396830877639540e+01

 100	5.931655999999844e-05
	5.322227231731862e+02
	0.000000000000000e+00
	0.000000000000000e+00
	0.000000000000000e+00
	9.634454463463724e-01
	5.322227231731862e+01

 101	6.031655999999844e-05
	5.228612190722320e+02
	0.000000000000000e+00
	0.000000000000000e+00
	0.000000000000000e+00
	9.447224381444638e-01
	5.228612190722319e+01

 102	6.131655999999843e-05
	5.116355210409131e+02
	0.000000000000000e+00
	0.000000000000000e+00
	0.000000000000000e+00
	9.222710420818263e-01
	5.116355210409132e+01

 103	6.231655999999843e-05
	4.985899317808262e+02
	0.000000000000000e+00
	0.000000000000000e+00
	0.000000000000000e+00
	8.961798635616522e-01
	4.985899317808262e+01

 104	6.331655999999843e-05
	4.837759362728173e+02
	0.000000000000000e+00
	0.000000000000000e+00
	0.000000000000000e+00
	8.665518725456345e-01
	4.837759362728173e+01

 105	6.431655999999843e-05
	4.672519985892862e+02
	0.000000000000000e+00
	0.000000000000000e+00
	0.000000000000000e+00
	8.335039971785724e-01
	4.672519985892863e+01

 106	6.531655999999842e-05
	4.490833311632005e+02
	0.000000000000000e+00
	0.000000000000000e+00
	0.000000000000000e+00
	7.971666623264010e-01
	4.490833311632004e+01

 107	6.631655999999842e-05
	4.293416374244165e+02
	0.000000000000000e+00
	0.000000000000000e+00
	0.000000000000000e+00
	7.576832748488329e-01
	4.293416374244165e+01

 108	6.731655999999842e-05
	4.081048288189992e+02
	0.000000000000000e+00
	0.000000000000000e+00
	0.000000000000000e+00
	7.152096576379985e-01
	4.081048288189992e+01

 109	6.831655999999841e-05
	3.854567173283394e+02
	0.000000000000000e+00
	0.000000000000000e+00
	0.000000000000000e+00
	6.699134346566789e-01
	3.854567173283395e+01

 110	6.931655999999841e-05
	3.614866847015523e+02
	0.000000000000000e+00
	0.000000000000000e+00
	0.000000000000000e+00
	6.219733694031048e-01
	3.614866847015524e+01

 111	7.031655999999841e-05
	3.362893297065503e+02
	0.000000000000000e+00
	0.000000000000000e+00
	0.000000000000000e+00
	5.715786594131006e-01
	3.362893297065503e+01

 112	7.131655999999841e-05
	3.099640947919216e+02
	0.000000000000000e+00
	0.000000000000000e+00
	0.000000000000000e+00
	5.189281895838433e-01
	3.099640947919216e+01

 113	7.231655999999840e-05
	2.826148736330185e+02
	0.000000000000000e+00
	0.000000000000000e+00
	0.000000000000000e+00
	4.642297472660371e-01
	2.826148736330185e+01

 114	7.331655999999840e-05
	2.543496011110848e+02
	0.000000000000000e+00
	0.000000000000000e+00
	0.000000000000000e+00
	4.076992022221697e-01
	2.543496011110848e+01

 115	7.431655999999840e-05
	2.252798273435898e+02
	0.000000000000000e+00
	0.000000000000000e+00
	0.000000000000000e+00
	3.495596546871796e-01
	2.252798273435898e+01

 116	7.531655999999839e-05
	1.955202774468772e+02
	0.000000000000000e+00
	0.000000000000000e+00
	0.000000000000000e+00
	2.900405548937544e-01
	1.955202774468772e+01

 117	7.631655999999839e-05
	1.651883987685446e+02
	0.000000000000000e+00
	0.000000000000000e+00
	0.000000000000000e+00
	2.293767975370891e-01
	1.651883987685446e+01

 118	7.731655999999839e-05
	1.344038973764179e+02
	0.000000000000000e+00
	0.000000000000000e+00
	0.000000000000000e+00
	1.678077947528358e-01
	1.344038973764179e+01

 119	7.831655999999839e-05
	1.032882656333908e+02
	0.000000000000000e+00
	0.000000000000000e+00
	0.000000000000000e+00
	1.055765312667816e-01
	1.032882656333908e+01

 120	7.931655999999838e-05
	7.196430272257351e+01
	0.000000000000000e+00
	0.000000000000000e+00
	0.000000000000000e+00
	4.292860544514695e-02
	7.196430272257350e+00

 121	8.031655999999838e-05
	4.055563001501709e+01
	0.000000000000000e+00
	0.000000000000000e+00
	0.000000000000000e+00
	-1.988873996996583e-02
	4.055563001501709e+00

 122	8.131655999999838e-05
	9.186203192641145e+00
	0.000000000000000e+00
	0.000000000000000e+00
	0.000000000000000e+00
	-8.262759361471771e-02
	9.186203192641145e-01

 123	8.231655999999837e-05
	-2.202017694821475e+01
	0.000000000000000e+00
	0.000000000000000e+00
	0.000000000000000e+00
	-1.450403538964295e-01
	-2.202017694821476e+00

 124	8.331655999999837e-05
	-5.294035308197341e+01
	0.000000000000000e+00
	0.000000000000000e+00
	0.000000000000000e+00
	-2.068807061639468e-01
	-5.294035308197341e+00

 125	8.431655999999837e-05
	-8.345229739951918e+01
	0.000000000000000e+00
	0.000000000000000e+00
	0.000000000000000e+00
	-2.679045947990384e-01
	-8.345229739951918e+00

 126	8.531655999999837e-05
	-1.134355931962131e+02
	0.000000000000000e+00
	0.000000000000000e+00
	0.000000000000000e+00
	-3.278711863924261e-01
	-1.134355931962131e+01

 127	8.631655999999836e-05
	-1.427719101016099e+02
	0.000000000000000e+00
	0.000000000000000e+00
	0.000000000000000e+00
	-3.865438202032198e-01
	-1.427719101016099e+01

 128	8.731655999999836e-05
	-1.713454710753720e+02
	0.000000000000000e+00
	0.000000000000000e+00
	0.000000000000000e+00
	-4.436909421507439e-01
	-1.713454710753720e+01

 129	8.831655999999836e-05
	-1.990435093263550e+02
	0.000000000000000e+00
	0.000000000000000e+00
	0.000000000000000e+00
	-4.990870186527100e-01
	-1.990435093263550e+01

 130	8.931655999999836e-05
	-2.257567133516119e+02
	0.000000000000000e+00
	0.000000000000000e+00
	0.000000000000000e+00
	-5.525134267032239e-01
	-2.257567133516120e+01

 131	9.031655999999835e-05
	-2.513796583389568e+02
	0.000000000000000e+00
	0.000000000000000e+00
	0.000000000000000e+00
	-6.037593166779135e-01
	-2.513796583389568e+01

 132	9.131655999999835e-05
	-2.758112222305356e+02
	0.000000000000000e+00
	0.000000000000000e+00
	0.000000000000000e+00
	-6.526224444610712e-01
	-2.758112222305356e+01

 133	9.231655999999835e-05
	-2.989549848053869e+02
	0.000000000000000e+00
	0.000000000000000e+00
	0.000000000000000e+00
	-6.989099696107736e-01
	-2.989549848053868e+01

 134	9.331655999999834e-05
	-3.207196082060078e+02
	0.000000000000000e+00
	0.000000000000000e+00
	0.000000000000000e+00
	-7.424392164120156e-01
	-3.207196082060078e+01

 135	9.431655999999834e-05
	-3.410191974071466e+02
	0.000000000000000e+00
	0.000000000000000e+00
	0.000000000000000e+00
	-7.830383948142933e-01
	-3.410191974071466e+01

 136	9.531655999999834e-05
	-3.597736392042265e+02
	0.000000000000000e+00
	0.000000000000000e+00
	0.000000000000000e+00
	-8.205472784084529e-01
	-3.597736392042265e+01

 137	9.631655999999834e-05
	-3.769089183835637e+02
	0.000000000000000e+00
	0.000000000000000e+00
	0.000000000000000e+00
	-8.548178367671273e-01
	-3.769089183835636e+01

 138	9.731655999999833e-05
	-3.923574098266023e+02
	0.000000000000000e+00
	0.000000000000000e+00
	0.000000000000000e+00
	-8.857148196532044e-01
	-3.923574098266023e+01

 139	9.831655999999833e-05
	-4.060581453953600e+02
	0.000000000000000e+00
	0.000000000000000e+00
	0.000000000000000e+00
	-9.131162907907201e-01
	-4.060581453953601e+01

 140	9.931655999999833e-05
	-4.179570545458190e+02
	0.000000000000000e+00
	0.000000000000000e+00
	0.000000000000000e+00
	-9.369141090916377e-01
	-4.179570545458190e+01

 141	1.000020000000001e-04
	-4.250476705032928e+02
	0.000000000000000e+00
	0.000000000000000e+00
	0.000000000000000e+00
	-9.510953410065855e-01
	-4.250476705032928e+01

 142	1.000022000000001e-04
	-2.552797667959728e+03
	0.000000000000000e+00
	0.000000000000000e+00
	5.000000000010959e-01
	-9.510992226516882e-01
	-2.552797667959728e+02

 143	1.000026000000001e-04
	-6.808355883944542e+03
	0.000000000000000e+00
	0.000000000000000e+00
	1.500000000003288e+00
	-9.511069854913188e-01
	-6.808355883944542e+02

 144	1.000034000000001e-04
	-1.531970516866136e+04
	0.000000000000000e+00
	0.000000000000000e+00
	3.500000000007671e+00
	-9.511225093682617e-01
	-1.531970516866136e+03

 145	1.000040000000001e-04
	-2.170342084282249e+04
	0.000000000000000e+00
	0.000000000000000e+00
	5.000000000000000e+00
	-9.511341506989210e-01
	-2.170342084282249e+03

 146	1.000041600000001e-04
	-2.170349999804934e+04
	0.000000000000000e+00
	0.000000000000000e+00
	5.000000000000000e+00
	-9.511372548254643e-01
	-2.170349999804934e+03

 147	1.000044800000001e-04
	-2.170365830114937e+04
	0.000000000000000e+00
	0.000000000000000e+00
	5.000000000000000e+00
	-9.511434627901716e-01
	-2.170365830114938e+03

 148	1.000051200000001e-04
	-2.170397487793451e+04
	0.000000000000000e+00
	0.000000000000000e+00
	5.000000000000000e+00
	-9.511558775660596e-01
	-2.170397487793451e+03

 149	1.000064000000001e-04
	-2.170460791384319e+04
	0.000000000000000e+00
	0.000000000000000e+00
	5.000000000000000e+00
	-9.511807025036546e-01
	-2.170460791384319e+03

 150	1.000089600000001e-04
	-2.170587351499985e+04
	0.000000000000000e+00
	0.000000000000000e+00
	5.000000000000000e+00
	-9.512303339215631e-01
	-2.170587351499985e+03

 151	1.000140800000001e-04
	-2.170840283455587e+04
	0.000000000000000e+00
	0.000000000000000e+00
	5.000000000000000e+00
	-9.513295229237599e-01
	-2.170840283455587e+03

 152	1.000243200000001e-04
	-2.171345394172288e+04
	0.000000000000000e+00
	0.000000000000000e+00
	5.000000000000000e+00
	-9.515276055577602e-01
	-2.171345394172288e+03

 153	1.000448000000002e-04
	-2.172352602096376e+04
	0.000000000000000e+00
	0.000000000000000e+00
	5.000000000000000e+00
	-9.519225890574023e-01
	-2.172352602096376e+03

 154	1.000857600000002e-04
	-2.174354958078806e+04
	0.000000000000000e+00
	0.000000000000000e+00
	5.000000000000000e+00
	-9.527078266975711e-01
	-2.174354958078806e+03

 155	1.001676800000004e-04
	-2.178311384302309e+04
	0.000000000000000e+00
	0.000000000000000e+00
	5.000000000000000e+00
	-9.542593663930622e-01
	-2.178311384302309e+03

 156	1.003315200000008e-04
	-2.186030729157043e+04
	0.000000000000000e+00
	0.000000000000000e+00
	5.000000000000000e+00
	-9.572865604537422e-01
	-2.186030729157043e+03

 157	1.006592000000015e-04
	-2.200692561308504e+04
	0.000000000000000e+00
	0.000000000000000e+00
	5.000000000000000e+00
	-9.630362985523550e-01
	-2.200692561308505e+03

 158	1.013145600000029e-04
	-2.226887621868117e+04
	0.000000000000000e+00
	0.000000000000000e+00
	5.000000000000000e+00
	-9.733088713208303e-01
	-2.226887621868117e+03

 159	1.023145600000029e-04
	-2.258736524036184e+04
	0.000000000000000e+00
	0.000000000000000e+00
	5.000000000000000e+00
	-9.857986368769349e-01
	-2.258736524036184e+03

 160	1.033145600000029e-04
	-2.280664659233701e+04
	0.000000000000000e+00
	0.000000000000000e+00
	5.000000000000000e+00
	-9.943979055818434e-01
	-2.280664659233701e+03

 161	1.043145600000029e-04
	-2.292585487129056e+04
	0.000000000000000e+00
	0.000000000000000e+00
	5.000000000000000e+00
	-9.990727400506103e-01
	-2.292585487129056e+03

 162	1.053145600000029e-04
	-2.294451961660655e+04
	0.000000000000000e+00
	0.000000000000000e+00
	5.000000000000000e+00
	-9.998046908473157e-01
	-2.294451961660655e+03

 163	1.063145600000029e-04
	-2.286256716706232e+04
	0.000000000000000e+00
	0.000000000000000e+00
	5.000000000000000e+00
	-9.965908692965616e-01
	-2.286256716706232e+03

 164	1.073145600000029e-04
	-2.268032095153571e+04
	0.000000000000000e+00
	0.000000000000000e+00
	5.000000000000000e+00
	-9.894439588837536e-01
	-2.268032095153571e+03

 165	1.083145600000029e-04
	-2.239850021257903e+04
	0.000000000000000e+00
	0.000000000000000e+00
	5.000000000000000e+00
	-9.783921651991778e-01
	-2.239850021257903e+03

 166	1.093145600000029e-04
	-2.201821716789730e+04
	0.000000000000000e+00
	0.000000000000000e+00
	5.000000000000000e+00
	-9.634791046234236e-01
	-2.201821716789730e+03

 167	1.103145600000029e-04
	-2.154097262093306e+04
	0.000000000000000e+00
	0.000000000000000e+00
	5.000000000000000e+00
	-9.447636321934537e-01
	-2.154097262093306e+03

 168	1.113145600000029e-04
	-2.096865003788091e+04
	0.000000000000000e+00
	0.000000000000000e+00
	5.000000000000000e+00
	-9.223196093286635e-01
	-2.096865003788092e+03

 169	1.123145600000029e-04
	-2.030350811450683e+04
	0.000000000000000e+00
	0.000000000000000e+00
	5.000000000000000e+00
	-8.962356123336015e-01
	-2.030350811450683e+03

 170	1.133145600000029e-04
	-1.954817186210793e+04
	0.000000000000000e+00
	0.000000000000000e+00
	5.000000000000000e+00
	-8.666145828277619e-01
	-1.954817186210793e+03

 171	1.143145600000029e-04
	-1.870562224779213e+04
	0.000000000000000e+00
	0.000000000000000e+00
	5.000000000000000e+00
	-8.335734214820443e-01
	-1.870562224779213e+03

 172	1.153145600000029e-04
	-1.777918442996282e+04
	0.000000000000000e+00
	0.000000000000000e+00
	5.000000000000000e+00
	-7.972425266652087e-01
	-1.777918442996282e+03

 173	1.163145600000029e-04
	-1.677251463543780e+04
	0.000000000000000e+00
	0.000000000000000e+00
	5.000000000000000e+00
	-7.577652798210903e-01
	-1.677251463543781e+03

 174	1.173145600000029e-04
	-1.568958572999237e+04
	0.000000000000000e+00
	0.000000000000000e+00
	5.000000000000000e+00
	-7.152974796075439e-01
	-1.568958572999237e+03

 175	1.183145600000029e-04
	-1.453467153927320e+04
	0.000000000000000e+00
	0.000000000000000e+00
	5.000000000000000e+00
	-6.700067270303215e-01
	-1.453467153927320e+03

 176	1.193145600000029e-04
	-1.331232998196089e+04
	0.000000000000000e+00
	0.000000000000000e+00
	5.000000000000000e+00
	-6.220717639984663e-01
	-1.331232998196089e+03

 177	1.203145600000029e-04
	-1.202738508174747e+04
	0.000000000000000e+00
	0.000000000000000e+00
	5.000000000000000e+00
	-5.716817679116656e-01
	-1.202738508174747e+03

 178	1.213145600000029e-04
	-1.068490792911858e+04
	0.000000000000000e+00
	0.000000000000000e+00